"""molden is a format for visualization of molecular orbitals. A full explanation on how
information in molden is organized can be found here:
https://www.theochem.ru.nl/molden/molden_format.html
http://sobereva.com/651

What implemented here is:
[Molden Format]
[Cell]
e11 e12 e13
e21 e22 e23
e31 e32 e33
[Atoms] Angs
element_name number atomic_number x y z
...
[GTO]
atom_sequence_number1 0
shell_label number_of_primitives 1.00
exponent_primitive_1 contraction_coefficient_1 (contraction_coefficient_1)
...
empty line
atom_sequence__number2 0
shell_label number_of_primitives 1.00
exponent_primitive_1 contraction_coefficient_1 (contraction_coefficient_1)
...
empty line
[MO]
Sym= symmetry_label_1
Ene= mo_energy_1
Spin= (Alpha|Beta)
Occup= mo_occupation_number_1
ao_number_1 mo_coefficient_1
...
ao_number_n mo_coefficient_n
....
Sym= symmetry_label_N
Ene= mo_energy_N
Spin= (Alpha|Beta)
Occup= mo_occupation_number_N
ao_number_1 mo_coefficient_1
...
ao_number_n mo_coefficient_n

A practical example from CP2K:
[Molden Format]
[Atoms] AU
Si       1      14       3.653762       2.109500       1.491642
Si       2      14       0.000000       0.000000       0.000000
[GTO]
    1       0
                        s       4    1.00
                                                        1.257        0.228
                                                        0.506       -0.024
                                                        0.239       -0.559
                                                        0.087       -0.207
                        s       4    1.00
                                                        1.257       -1.026
                                                        0.506        0.694
                                                        0.239        0.058
                                                        0.087       -0.258
                        p       4    1.00
                                                        1.257        0.068
                                                        0.506       -0.214
                                                        0.239       -0.410
                                                        0.087       -0.354
                        p       4    1.00
                                                        1.257        0.100
                                                        0.506       -0.412
                                                        0.239       -0.057
                                                        0.087        0.700
                        d       4    1.00
                                                        1.257        0.159
                                                        0.506        0.392
                                                        0.239        0.393
                                                        0.087        0.550

    2       0
                        s       4    1.00
                                                        1.257        0.228
                                                        0.506       -0.024
                                                        0.239       -0.559
                                                        0.087       -0.207
                        s       4    1.00
                                                        1.257       -1.026
                                                        0.506        0.694
                                                        0.239        0.058
                                                        0.087       -0.258
                        p       4    1.00
                                                        1.257        0.068
                                                        0.506       -0.214
                                                        0.239       -0.410
                                                        0.087       -0.354
                        p       4    1.00
                                                        1.257        0.100
                                                        0.506       -0.412
                                                        0.239       -0.057
                                                        0.087        0.700
                        d       4    1.00
                                                        1.257        0.159
                                                        0.506        0.392
                                                        0.239        0.393
                                                        0.087        0.550

[5D7F]
[9G]
[MO]
Ene=    0.0000000000E+00
Spin= Alpha
Occup=   1.0000000
    1 -4.700E-01
    2  6.389E-03
10 -1.025E-02
11 -1.401E-02
12  9.902E-03
13  7.244E-03
14 -4.700E-01
15  6.389E-03
23 -1.725E-02
24 -1.871E-03
25  1.323E-03
26  1.220E-02
Ene=    0.0000000000E+00
Spin= Alpha
Occup=   1.0000000
    3  4.863E-01
    4  2.807E-01
    5 -3.973E-01
    6 -3.021E-02
    7 -1.744E-02
    8  2.469E-02
    9  9.497E-02
    10  6.710E-02
    11  3.873E-02
    12  5.477E-02
    13  9.490E-02
    16 -4.863E-01
    17 -2.807E-01
    18  3.974E-01
    19  3.022E-02
    20  1.744E-02
    21 -2.469E-02
    22  9.496E-02
    23  6.710E-02
    24  3.874E-02
    25  5.478E-02
    26  9.489E-02
Ene=    0.0000000000E+00
Spin= Alpha
Occup=   1.0000000
    3  5.244E-01
    4 -2.238E-01
    5  4.838E-01
    6 -4.157E-02
    7  2.020E-02
    8 -3.662E-02
    9 -1.081E-01
    10  6.403E-02
    11 -2.254E-02
    12 -3.187E-02
    13  9.055E-02
    16 -4.194E-01
    17  1.433E-01
    18 -4.119E-01
    19  2.018E-02
    20 -3.817E-03
    21  2.199E-02
    22 -1.230E-01
    23  7.659E-02
    24 -3.216E-02
    25 -4.548E-02
    26  1.083E-01
Ene=    0.0000000000E+00
Spin= Alpha
Occup=   1.0000000
    3  8.529E-02
    4 -5.335E-01
    5 -2.724E-01
    6 -6.762E-03
    7  2.721E-02
    8  1.093E-02
    9  9.352E-02
    10  1.042E-02
    11 -9.445E-02
    12 -1.336E-01
    13  1.473E-02
    16 -6.821E-02
    17  6.449E-01
    18  3.722E-01
    19  3.284E-03
    20 -4.990E-02
    21 -3.125E-02
    22  7.285E-02
    23  1.246E-02
    24 -8.113E-02
    25 -1.147E-01
    26  1.762E-02
Ene=    0.0000000000E+00
Spin= Alpha
Occup=   1.0000000
    3 -5.931E-01
    4 -3.424E-01
    5  4.842E-01
    6  1.362E-01
    7  7.864E-02
    8 -1.112E-01
    9  9.743E-02
    10  6.889E-02
    11  3.978E-02
    12  5.625E-02
    13  9.742E-02
    16 -5.930E-01
    17 -3.424E-01
    18  4.842E-01
    19  1.362E-01
    20  7.864E-02
    21 -1.112E-01
    22 -9.743E-02
    23 -6.890E-02
    24 -3.977E-02
    25 -5.625E-02
    26 -9.744E-02
Ene=    0.0000000000E+00
Spin= Beta
Occup=   1.0000000
    1 -4.694E-01
    2  5.072E-03
    10  2.084E-02
    11  2.163E-02
    12 -1.530E-02
    13 -1.474E-02
    14 -4.694E-01
    15  5.072E-03
    23  2.916E-02
    24  7.236E-03
    25 -5.116E-03
    26 -2.062E-02
Ene=    0.0000000000E+00
Spin= Beta
Occup=   1.0000000
    3 -4.129E-01
    4  1.091E-01
    5 -4.286E-01
    6  1.766E-02
    8  2.165E-02
    9  1.254E-01
    10 -7.502E-02
    11  2.752E-02
    12  3.893E-02
    13 -1.061E-01
    16  5.220E-01
    17 -1.991E-01
    18  4.985E-01
    19 -4.131E-02
    20  1.948E-02
    21 -3.682E-02
    22  1.129E-01
    23 -6.372E-02
    24  1.821E-02
    25  2.575E-02
    26 -9.012E-02
Ene=    0.0000000000E+00
Spin= Beta
Occup=   1.0000000
    3 -8.859E-02
    4  6.539E-01
    5  3.539E-01
    6  3.789E-03
    7 -4.989E-02
    8 -3.064E-02
    9 -6.736E-02
    10 -1.609E-02
    11  8.288E-02
    12  1.172E-01
    13 -2.276E-02
    16  1.120E-01
    17 -5.415E-01
    18 -2.457E-01
    19 -8.862E-03
    20  2.551E-02
    21  7.183E-03
    22 -8.675E-02
    23 -1.367E-02
    24  9.451E-02
    25  1.337E-01
    26 -1.933E-02
"""